                         Program Version 4.0.0.1 - RELEASE -
|  1> ! HF def2-TZVP
|  2>
|  3> %scf
|  4>   convergence tight
|  5> end
|  6>
|  7> *xyz 0 1
|  8>   6        -0.68617648       -0.73849905       -0.15776534
|  9>   6        -1.26591708        0.53579698        0.09893900
| 10>  16         0.86222014       -1.00614799       -0.94475237
| 11>  16        -0.49602283        2.07684620       -0.30973995
| 12>   6         1.75565719        0.42220208       -0.39184332
| 13>   6         1.21435498        1.64379847       -0.14216707
| 14>   6        -1.55657875       -1.73307428        0.24038438
| 15>   7        -2.45866377        0.55718342        0.64185518
| 16>  16        -3.00030985       -1.00149499        0.86107660
| 17>   6         3.15649520        0.19194895       -0.26644000
| 18>   7         4.29427109       -0.03724577       -0.20218394
| 19>   6         2.03188838        2.74297154        0.25456918
| 20>   7         2.66273291        3.67299364        0.55125115
| 21>   6        -1.38550466       -3.13626915        0.15704016
| 22>   7        -1.26597949       -4.29040470        0.08789701
| 23>   6        -0.66599954       -0.67042169        5.97505532
| 24>   6         0.58832663       -1.24577937        6.32356078
| 25>  16        -1.40472557        0.70840010        6.77608651
| 26>  16         1.63440613       -0.63743041        7.61592975
| 27>   6         0.04092628        1.62741955        7.23392496
| 28>   6         1.24432792        1.09072445        7.56773165
| 29>   6        -1.24680558       -1.40345187        4.95985370
| 30>   7         0.96723158       -2.31189624        5.66198246
| 31>  16        -0.20763934       -2.73205540        4.56013786
| 32>   6        -0.17903461        3.03505231        7.26965831
| 33>   7        -0.41320695        4.17299200        7.30773190
| 34>   6         2.33342142        1.91987981        7.96812978
| 35>   7         3.23841250        2.55426425        8.32795427
| 36>   6        -2.49368274       -1.18979059        4.32360324
| 37>   7        -3.51819570       -1.03493590        3.79683087
| 38> *
| 39>
| 40>
| 41>                          ****END OF INPUT****

CARTESIAN COORDINATES (ANGSTROEM)
---------------------------------
  C     -0.686176   -0.738499   -0.157765
  C     -1.265917    0.535797    0.098939
  S      0.862220   -1.006148   -0.944752
  S     -0.496023    2.076846   -0.309740
  C      1.755657    0.422202   -0.391843
  C      1.214355    1.643798   -0.142167
  C     -1.556579   -1.733074    0.240384
  N     -2.458664    0.557183    0.641855
  S     -3.000310   -1.001495    0.861077
  C      3.156495    0.191949   -0.266440
  N      4.294271   -0.037246   -0.202184
  C      2.031888    2.742972    0.254569
  N      2.662733    3.672994    0.551251
  C     -1.385505   -3.136269    0.157040
  N     -1.265979   -4.290405    0.087897
  C     -0.666000   -0.670422    5.975055
  C      0.588327   -1.245779    6.323561
  S     -1.404726    0.708400    6.776087
  S      1.634406   -0.637430    7.615930
  C      0.040926    1.627420    7.233925
  C      1.244328    1.090724    7.567732
  C     -1.246806   -1.403452    4.959854
  N      0.967232   -2.311896    5.661982
  S     -0.207639   -2.732055    4.560138
  C     -0.179035    3.035052    7.269658
  N     -0.413207    4.172992    7.307732
  C      2.333421    1.919880    7.968130
  N      3.238412    2.554264    8.327954
  C     -2.493683   -1.189791    4.323603
  N     -3.518196   -1.034936    3.796831

 Total Charge           Charge          ....    0
 Multiplicity           Mult            ....    1
 Number of Electrons    NEL             ....  248
 Basis Dimension        Dim             ....  966

ORBITAL ENERGIES
----------------

  NO   OCC          E(Eh)            E(eV)
   0   2.0000     -92.082175     -2505.6834
   1   2.0000     -92.072753     -2505.4270
   2   2.0000     -92.055444     -2504.9560
   3   2.0000     -92.050987     -2504.8347
   4   2.0000     -92.050190     -2504.8130
   5   2.0000     -92.046239     -2504.7055
   6   2.0000     -15.667252      -426.3276
   7   2.0000     -15.660392      -426.1409
   8   2.0000     -15.639779      -425.5800
   9   2.0000     -15.632451      -425.3806
  10   2.0000     -15.626627      -425.2221
  11   2.0000     -15.626520      -425.2192
  12   2.0000     -15.625388      -425.1884
  13   2.0000     -15.625229      -425.1841
  14   2.0000     -11.390807      -309.9596
  15   2.0000     -11.388903      -309.9078
  16   2.0000     -11.388793      -309.9048
  17   2.0000     -11.388096      -309.8858
  18   2.0000     -11.386250      -309.8356
  19   2.0000     -11.381738      -309.7128
  20   2.0000     -11.381048      -309.6941
  21   2.0000     -11.373785      -309.4964
  22   2.0000     -11.365413      -309.2686
  23   2.0000     -11.357504      -309.0534
  24   2.0000     -11.340722      -308.5967
  25   2.0000     -11.332266      -308.3666
  26   2.0000     -11.324105      -308.1446
  27   2.0000     -11.323722      -308.1341
  28   2.0000     -11.323135      -308.1182
  29   2.0000     -11.322781      -308.1085
  30   2.0000      -9.081882      -247.1306
  31   2.0000      -9.072693      -246.8805
  32   2.0000      -9.058650      -246.4984
  33   2.0000      -9.054199      -246.3773
  34   2.0000      -9.053626      -246.3617
  35   2.0000      -9.049700      -246.2549
  36   2.0000      -6.762824      -184.0258
  37   2.0000      -6.762033      -184.0043
  38   2.0000      -6.761344      -183.9855
  39   2.0000      -6.753441      -183.7705
  40   2.0000      -6.752662      -183.7493
  41   2.0000      -6.752047      -183.7325
  42   2.0000      -6.739977      -183.4041
  43   2.0000      -6.738991      -183.3773
  44   2.0000      -6.738091      -183.3528
  45   2.0000      -6.735533      -183.2832
  46   2.0000      -6.734836      -183.2642
  47   2.0000      -6.734547      -183.2563
  48   2.0000      -6.733862      -183.2377
  49   2.0000      -6.733648      -183.2319
  50   2.0000      -6.732965      -183.2133
  51   2.0000      -6.730921      -183.1577
  52   2.0000      -6.729944      -183.1311
  53   2.0000      -6.729052      -183.1068
  54   2.0000      -1.359578       -36.9960
  55   2.0000      -1.352546       -36.8047
  56   2.0000      -1.280265       -34.8378
  57   2.0000      -1.278254       -34.7831
  58   2.0000      -1.276817       -34.7440
  59   2.0000      -1.270893       -34.5827
  60   2.0000      -1.260744       -34.3066
  61   2.0000      -1.259771       -34.2801
  62   2.0000      -1.216259       -33.0961
  63   2.0000      -1.213235       -33.0138
  64   2.0000      -1.175332       -31.9824
  65   2.0000      -1.169019       -31.8106
  66   2.0000      -1.113467       -30.2990
  67   2.0000      -1.108140       -30.1540
  68   2.0000      -1.096693       -29.8425
  69   2.0000      -1.092046       -29.7161
  70   2.0000      -0.988411       -26.8960
  71   2.0000      -0.983166       -26.7533
  72   2.0000      -0.954228       -25.9659
  73   2.0000      -0.949386       -25.8341
  74   2.0000      -0.928542       -25.2669
  75   2.0000      -0.922670       -25.1071
  76   2.0000      -0.832693       -22.6587
  77   2.0000      -0.829926       -22.5834
  78   2.0000      -0.804252       -21.8848
  79   2.0000      -0.798394       -21.7254
  80   2.0000      -0.762753       -20.7556
  81   2.0000      -0.756485       -20.5850
  82   2.0000      -0.725411       -19.7394
  83   2.0000      -0.719984       -19.5918
  84   2.0000      -0.669103       -18.2072
  85   2.0000      -0.663219       -18.0471
  86   2.0000      -0.644248       -17.5309
  87   2.0000      -0.640228       -17.4215
  88   2.0000      -0.628245       -17.0954
  89   2.0000      -0.618678       -16.8351
  90   2.0000      -0.615150       -16.7391
  91   2.0000      -0.612361       -16.6632
  92   2.0000      -0.605923       -16.4880
  93   2.0000      -0.604758       -16.4563
  94   2.0000      -0.600764       -16.3476
  95   2.0000      -0.598477       -16.2854
  96   2.0000      -0.594367       -16.1735
  97   2.0000      -0.587765       -15.9939
  98   2.0000      -0.578520       -15.7423
  99   2.0000      -0.572409       -15.5760
 100   2.0000      -0.568664       -15.4741
 101   2.0000      -0.563066       -15.3218
 102   2.0000      -0.556134       -15.1332
 103   2.0000      -0.548087       -14.9142
 104   2.0000      -0.535226       -14.5642
 105   2.0000      -0.533299       -14.5118
 106   2.0000      -0.527521       -14.3546
 107   2.0000      -0.518538       -14.1101
 108   2.0000      -0.512854       -13.9555
 109   2.0000      -0.511715       -13.9245
 110   2.0000      -0.510851       -13.9010
 111   2.0000      -0.508582       -13.8392
 112   2.0000      -0.505417       -13.7531
 113   2.0000      -0.501529       -13.6473
 114   2.0000      -0.496012       -13.4972
 115   2.0000      -0.489962       -13.3325
 116   2.0000      -0.481805       -13.1106
 117   2.0000      -0.476677       -12.9710
 118   2.0000      -0.431485       -11.7413
 119   2.0000      -0.425977       -11.5914
 120   2.0000      -0.412536       -11.2257
 121   2.0000      -0.408840       -11.1251
 122   2.0000      -0.364036        -9.9059
 123   2.0000      -0.358177        -9.7465
 124   0.0000      -0.011463        -0.3119
 125   0.0000      -0.008333        -0.2268
 126   0.0000      -0.006256        -0.1702
 127   0.0000       0.003151         0.0857
 128   0.0000       0.072770         1.9802

MULLIKEN ATOMIC CHARGES
-----------------------
   0 C :   -0.158556
   1 C :    0.128294
   2 S :    0.142121
   3 S :    0.146147
   4 C :    0.153099
   5 C :    0.124074
   6 C :    0.146645
   7 N :   -0.310988
   8 S :    0.334208
   9 C :   -0.116256
  10 N :   -0.121069
  11 C :   -0.118766
  12 N :   -0.118133
  13 C :   -0.109824
  14 N :   -0.128388
  15 C :   -0.162102
  16 C :    0.134787
  17 S :    0.145463
  18 S :    0.150513
  19 C :    0.154564
  20 C :    0.130904
  21 C :    0.158555
  22 N :   -0.308604
  23 S :    0.310141
  24 C :   -0.115899
  25 N :   -0.118304
  26 C :   -0.117754
  27 N :   -0.116422
  28 C :   -0.081858
  29 N :   -0.156592
Sum of atomic charges:   -0.0000000

LOEWDIN ATOMIC CHARGES
----------------------
   0 C :   -0.381539
   1 C :   -0.491190
   2 S :    0.748718
   3 S :    0.745676
   4 C :   -0.330784
   5 C :   -0.329910
   6 C :   -0.364873
   7 N :   -0.131472
   8 S :    0.788416
   9 C :   -0.166786
  10 N :    0.091433
  11 C :   -0.165733
  12 N :    0.093872
  13 C :   -0.174624
  14 N :    0.083846
  15 C :   -0.374542
  16 C :   -0.484762
  17 S :    0.751699
  18 S :    0.749394
  19 C :   -0.329369
  20 C :   -0.327546
  21 C :   -0.362366
  22 N :   -0.130881
  23 S :    0.743714
  24 C :   -0.166230
  25 N :    0.094363
  26 C :   -0.164424
  27 N :    0.096482
  28 C :   -0.176338
  29 N :    0.065754

  Mayer bond orders larger than 0.1
B(  0-C ,  1-C ) :   1.2177 B(  0-C ,  2-S ) :   1.1475 B(  0-C ,  6-C ) :   1.5658
B(  1-C ,  3-S ) :   1.0769 B(  1-C ,  7-N ) :   1.6643 B(  1-C ,  8-S ) :   0.1294
B(  2-S ,  4-C ) :   1.1191 B(  3-S ,  5-C ) :   1.1403 B(  4-C ,  5-C ) :   1.7028
B(  4-C ,  9-C ) :   0.9637 B(  5-C , 11-C ) :   0.9723 B(  6-C ,  8-S ) :   1.2812
B(  6-C , 13-C ) :   0.9117 B(  7-N ,  8-S ) :   1.1383 B(  9-C , 10-N ) :   2.9652
B( 11-C , 12-N ) :   2.9621 B( 13-C , 14-N ) :   2.9698 B( 15-C , 16-C ) :   1.2161
B( 15-C , 17-S ) :   1.1463 B( 15-C , 21-C ) :   1.5880 B( 16-C , 18-S ) :   1.0809
B( 16-C , 22-N ) :   1.6636 B( 16-C , 23-S ) :   0.1358 B( 17-S , 19-C ) :   1.1180
B( 18-S , 20-C ) :   1.1378 B( 19-C , 20-C ) :   1.7045 B( 19-C , 24-C ) :   0.9636
B( 20-C , 26-C ) :   0.9733 B( 21-C , 23-S ) :   1.2928 B( 21-C , 28-C ) :   0.9081
B( 22-N , 23-S ) :   1.1256 B( 24-C , 25-N ) :   2.9627 B( 26-C , 27-N ) :   2.9599
B( 28-C , 29-N ) :   2.9129

FINAL SINGLE POINT ENERGY     -3426.880455454606

DIPOLE MOMENT
-------------
                                X             Y             Z
Electronic contribution:     -2.08044      -1.89675      -0.20890
Nuclear contribution   :      0.09494       0.09312       0.01912
                        -----------------------------------------
Total Dipole Moment    :     -1.98550      -1.80363      -0.18978
                        -----------------------------------------
Magnitude (a.u.)       :      2.68911
Magnitude (Debye)      :      6.83517

                             ****ORCA TERMINATED NORMALLY****
TOTAL RUN TIME: 0 days 1 hours 57 minutes 15 seconds 52 msec
