                         Program Version 4.0.0.1 - RELEASE -
|  1> ! DFT M062X def2-TZVP
|  2>
|  3> %scf
|  4>   convergence tight
|  5> end
|  6>
|  7> *xyz 0 1
|  8>   6        -0.49089435       -0.78439079        0.42995667
|  9>   6        -0.59636250        0.42927582        1.16597059
| 10>  16        -0.32930800       -0.89846485       -1.31629463
| 11>  16        -0.54904058        2.04085657        0.43442669
| 12>   6         0.59883309        0.57490127       -1.65076206
| 13>   6         0.50846618        1.73939332       -0.95546634
| 14>   6        -0.60663783       -1.85921989        1.28823930
| 15>   7        -0.77238976        0.33543263        2.46137318
| 16>  16        -0.85829004       -1.26848998        2.89837467
| 17>   6         1.45357109        0.45237826       -2.78456130
| 18>   7         2.11644129        0.31224547       -3.72910295
| 19>   6         1.26761464        2.88462575       -1.33766817
| 20>   7         1.84450767        3.85022460       -1.63048113
| 21>   6        -0.57070239       -3.24026808        0.97746127
| 22>   7        -0.55292913       -4.37785209        0.73938010
| 23>   6        -0.77829694        0.65412662        6.25175955
| 24>   6         0.22874122        0.82892327        5.26123094
| 25>  16        -1.19572872       -0.87427659        7.01218772
| 26>  16         1.25780517       -0.47621344        4.65112120
| 27>   6         0.38815266       -1.67133675        7.02389085
| 28>   6         1.35851546       -1.51242776        6.08538777
| 29>   6        -1.42538874        1.85325303        6.47237520
| 30>   7         0.37201546        2.02818757        4.75221459
| 31>  16        -0.74936551        3.05796897        5.42524645
| 32>   6         0.55578413       -2.56672696        8.11991353
| 33>   7         0.63641386       -3.30254561        9.01616282
| 34>   6         2.58298639       -2.23940644        6.16358542
| 35>   7         3.58278897       -2.83207897        6.17134426
| 36>   6        -2.49297657        2.12546528        7.36193980
| 37>   7        -3.37536812        2.36477970        8.07972087
| 38> *
| 39>
| 40>
| 41>                          ****END OF INPUT****

CARTESIAN COORDINATES (ANGSTROEM)
---------------------------------
  C     -0.490894   -0.784391    0.429957
  C     -0.596363    0.429276    1.165971
  S     -0.329308   -0.898465   -1.316295
  S     -0.549041    2.040857    0.434427
  C      0.598833    0.574901   -1.650762
  C      0.508466    1.739393   -0.955466
  C     -0.606638   -1.859220    1.288239
  N     -0.772390    0.335433    2.461373
  S     -0.858290   -1.268490    2.898375
  C      1.453571    0.452378   -2.784561
  N      2.116441    0.312245   -3.729103
  C      1.267615    2.884626   -1.337668
  N      1.844508    3.850225   -1.630481
  C     -0.570702   -3.240268    0.977461
  N     -0.552929   -4.377852    0.739380
  C     -0.778297    0.654127    6.251760
  C      0.228741    0.828923    5.261231
  S     -1.195729   -0.874277    7.012188
  S      1.257805   -0.476213    4.651121
  C      0.388153   -1.671337    7.023891
  C      1.358515   -1.512428    6.085388
  C     -1.425389    1.853253    6.472375
  N      0.372015    2.028188    4.752215
  S     -0.749366    3.057969    5.425246
  C      0.555784   -2.566727    8.119914
  N      0.636414   -3.302546    9.016163
  C      2.582986   -2.239406    6.163585
  N      3.582789   -2.832079    6.171344
  C     -2.492977    2.125465    7.361940
  N     -3.375368    2.364780    8.079721

 Total Charge           Charge          ....    0
 Multiplicity           Mult            ....    1
 Number of Electrons    NEL             ....  248
 Basis Dimension        Dim             ....  966

ORBITAL ENERGIES
----------------

  NO   OCC          E(Eh)            E(eV)
   0   2.0000     -90.014030     -2449.4063
   1   2.0000     -90.012579     -2449.3668
   2   2.0000     -89.986024     -2448.6442
   3   2.0000     -89.983186     -2448.5670
   4   2.0000     -89.981527     -2448.5218
   5   2.0000     -89.980002     -2448.4803
   6   2.0000     -14.851760      -404.1369
   7   2.0000     -14.850110      -404.0920
   8   2.0000     -14.813910      -403.1070
   9   2.0000     -14.813288      -403.0901
  10   2.0000     -14.809708      -402.9926
  11   2.0000     -14.808872      -402.9699
  12   2.0000     -14.807777      -402.9401
  13   2.0000     -14.807173      -402.9237
  14   2.0000     -10.692299      -290.9523
  15   2.0000     -10.691266      -290.9241
  16   2.0000     -10.690231      -290.8960
  17   2.0000     -10.689849      -290.8856
  18   2.0000     -10.688724      -290.8550
  19   2.0000     -10.688215      -290.8411
  20   2.0000     -10.681767      -290.6657
  21   2.0000     -10.680640      -290.6350
  22   2.0000     -10.669180      -290.3232
  23   2.0000     -10.667452      -290.2761
  24   2.0000     -10.635252      -289.3999
  25   2.0000     -10.634716      -289.3853
  26   2.0000     -10.629336      -289.2389
  27   2.0000     -10.628930      -289.2279
  28   2.0000     -10.627605      -289.1918
  29   2.0000     -10.627206      -289.1810
  30   2.0000      -8.386970      -228.2210
  31   2.0000      -8.384850      -228.1634
  32   2.0000      -8.361234      -227.5207
  33   2.0000      -8.358382      -227.4431
  34   2.0000      -8.358030      -227.4336
  35   2.0000      -8.355575      -227.3668
  36   2.0000      -6.303194      -171.5186
  37   2.0000      -6.300875      -171.4555
  38   2.0000      -6.299496      -171.4180
  39   2.0000      -6.297394      -171.3608
  40   2.0000      -6.297386      -171.3606
  41   2.0000      -6.295729      -171.3155
  42   2.0000      -6.277855      -170.8291
  43   2.0000      -6.274939      -170.7498
  44   2.0000      -6.274893      -170.7485
  45   2.0000      -6.274254      -170.7311
  46   2.0000      -6.271967      -170.6689
  47   2.0000      -6.271924      -170.6677
  48   2.0000      -6.271354      -170.6522
  49   2.0000      -6.270652      -170.6331
  50   2.0000      -6.269106      -170.5910
  51   2.0000      -6.267908      -170.5585
  52   2.0000      -6.267674      -170.5521
  53   2.0000      -6.265231      -170.4856
  54   2.0000      -1.156724       -31.4761
  55   2.0000      -1.151870       -31.3440
  56   2.0000      -1.076645       -29.2970
  57   2.0000      -1.074597       -29.2413
  58   2.0000      -1.067206       -29.0402
  59   2.0000      -1.066519       -29.0215
  60   2.0000      -1.058865       -28.8132
  61   2.0000      -1.057066       -28.7642
  62   2.0000      -1.028251       -27.9801
  63   2.0000      -1.025794       -27.9133
  64   2.0000      -0.991344       -26.9758
  65   2.0000      -0.990560       -26.9545
  66   2.0000      -0.949291       -25.8315
  67   2.0000      -0.942865       -25.6567
  68   2.0000      -0.931551       -25.3488
  69   2.0000      -0.929750       -25.2998
  70   2.0000      -0.848084       -23.0775
  71   2.0000      -0.841823       -22.9072
  72   2.0000      -0.810383       -22.0516
  73   2.0000      -0.808462       -21.9994
  74   2.0000      -0.788643       -21.4601
  75   2.0000      -0.787242       -21.4219
  76   2.0000      -0.710267       -19.3273
  77   2.0000      -0.707551       -19.2534
  78   2.0000      -0.686417       -18.6784
  79   2.0000      -0.684264       -18.6198
  80   2.0000      -0.659476       -17.9453
  81   2.0000      -0.654458       -17.8087
  82   2.0000      -0.626241       -17.0409
  83   2.0000      -0.623891       -16.9769
  84   2.0000      -0.593275       -16.1438
  85   2.0000      -0.581168       -15.8144
  86   2.0000      -0.551998       -15.0206
  87   2.0000      -0.548121       -14.9151
  88   2.0000      -0.546810       -14.8795
  89   2.0000      -0.541581       -14.7372
  90   2.0000      -0.523909       -14.2563
  91   2.0000      -0.520088       -14.1523
  92   2.0000      -0.508295       -13.8314
  93   2.0000      -0.505628       -13.7588
  94   2.0000      -0.502177       -13.6649
  95   2.0000      -0.501047       -13.6342
  96   2.0000      -0.493433       -13.4270
  97   2.0000      -0.492691       -13.4068
  98   2.0000      -0.491729       -13.3806
  99   2.0000      -0.489917       -13.3313
 100   2.0000      -0.487593       -13.2681
 101   2.0000      -0.485347       -13.2070
 102   2.0000      -0.480459       -13.0739
 103   2.0000      -0.477674       -12.9982
 104   2.0000      -0.471524       -12.8308
 105   2.0000      -0.469558       -12.7773
 106   2.0000      -0.458887       -12.4869
 107   2.0000      -0.454197       -12.3593
 108   2.0000      -0.450272       -12.2525
 109   2.0000      -0.448341       -12.2000
 110   2.0000      -0.447109       -12.1664
 111   2.0000      -0.446485       -12.1495
 112   2.0000      -0.441745       -12.0205
 113   2.0000      -0.440689       -11.9918
 114   2.0000      -0.427352       -11.6288
 115   2.0000      -0.421417       -11.4674
 116   2.0000      -0.419841       -11.4244
 117   2.0000      -0.417325       -11.3560
 118   2.0000      -0.388806       -10.5799
 119   2.0000      -0.386281       -10.5112
 120   2.0000      -0.369529       -10.0554
 121   2.0000      -0.363827        -9.9002
 122   2.0000      -0.327903        -8.9227
 123   2.0000      -0.310877        -8.4594
 124   0.0000      -0.112704        -3.0668
 125   0.0000      -0.108574        -2.9544
 126   0.0000      -0.097240        -2.6460
 127   0.0000      -0.097013        -2.6399
 128   0.0000      -0.037203        -1.0123

MULLIKEN ATOMIC CHARGES
-----------------------
   0 C :   -0.119243
   1 C :    0.107000
   2 S :    0.127611
   3 S :    0.111022
   4 C :    0.095401
   5 C :    0.062615
   6 C :    0.138350
   7 N :   -0.256589
   8 S :    0.237780
   9 C :   -0.231707
  10 N :    0.065149
  11 C :   -0.231126
  12 N :    0.061455
  13 C :   -0.242408
  14 N :    0.060278
  15 C :   -0.086415
  16 C :    0.060596
  17 S :    0.118710
  18 S :    0.088055
  19 C :    0.104773
  20 C :    0.040739
  21 C :    0.111325
  22 N :   -0.229735
  23 S :    0.290253
  24 C :   -0.218578
  25 N :    0.064507
  26 C :   -0.216643
  27 N :    0.068771
  28 C :   -0.241990
  29 N :    0.060047
Sum of atomic charges:   -0.0000000

LOEWDIN ATOMIC CHARGES
----------------------
   0 C :   -0.385292
   1 C :   -0.511920
   2 S :    0.772352
   3 S :    0.759931
   4 C :   -0.342862
   5 C :   -0.345925
   6 C :   -0.373575
   7 N :   -0.114904
   8 S :    0.749215
   9 C :   -0.188708
  10 N :    0.123321
  11 C :   -0.188497
  12 N :    0.122059
  13 C :   -0.198001
  14 N :    0.118867
  15 C :   -0.391225
  16 C :   -0.531687
  17 S :    0.768207
  18 S :    0.765038
  19 C :   -0.345286
  20 C :   -0.349098
  21 C :   -0.372936
  22 N :   -0.097753
  23 S :    0.770121
  24 C :   -0.188684
  25 N :    0.123873
  26 C :   -0.189485
  27 N :    0.124557
  28 C :   -0.198116
  29 N :    0.116412

  Mayer bond orders larger than 0.1
B(  0-C ,  1-C ) :   1.2275 B(  0-C ,  2-S ) :   1.1446 B(  0-C ,  6-C ) :   1.4755
B(  1-C ,  3-S ) :   1.0848 B(  1-C ,  7-N ) :   1.5600 B(  1-C ,  8-S ) :   0.1206
B(  2-S ,  4-C ) :   1.1069 B(  3-S ,  5-C ) :   1.1325 B(  4-C ,  5-C ) :   1.5805
B(  4-C ,  9-C ) :   1.0314 B(  5-C , 11-C ) :   1.0356 B(  6-C ,  8-S ) :   1.2593
B(  6-C , 13-C ) :   0.9738 B(  7-N ,  8-S ) :   1.1473 B(  9-C , 10-N ) :   2.9345
B( 11-C , 12-N ) :   2.9332 B( 13-C , 14-N ) :   2.9333 B( 15-C , 16-C ) :   1.2029
B( 15-C , 17-S ) :   1.1154 B( 15-C , 21-C ) :   1.5024 B( 16-C , 18-S ) :   1.0310
B( 16-C , 22-N ) :   1.5486 B( 16-C , 23-S ) :   0.1341 B( 17-S , 19-C ) :   1.1243
B( 18-S , 20-C ) :   1.1311 B( 19-C , 20-C ) :   1.5546 B( 19-C , 24-C ) :   1.0451
B( 20-C , 26-C ) :   1.0511 B( 21-C , 23-S ) :   1.2606 B( 21-C , 28-C ) :   0.9807
B( 22-N , 23-S ) :   1.1845 B( 24-C , 25-N ) :   2.9316 B( 26-C , 27-N ) :   2.9339
B( 28-C , 29-N ) :   2.9405

FINAL SINGLE POINT ENERGY     -3436.657143157012

DIPOLE MOMENT
-------------
                                X             Y             Z
Electronic contribution:     -1.80094       1.12708       0.09516
Nuclear contribution   :      0.09139      -0.05471       0.00018
                        -----------------------------------------
Total Dipole Moment    :     -1.70956       1.07237       0.09534
                        -----------------------------------------
Magnitude (a.u.)       :      2.02031
Magnitude (Debye)      :      5.13522

                             ****ORCA TERMINATED NORMALLY****
TOTAL RUN TIME: 0 days 7 hours 20 minutes 19 seconds 861 msec
